<?xml version="1.0" encoding="UTF-8"?>

<!-- generated on 2023-01-01 13:24:23 by Eclipse SUMO GUI Version 1.15.0
<configuration xmlns:xsi="http://www.w3.org/2001/XMLSchema-instance" xsi:noNamespaceSchemaLocation="http://sumo.dlr.de/xsd/sumoConfiguration.xsd">

    <input>
        <net-file value="single_intersection_tls.net.xml"/>
        <route-files value="single_intersection_tls.routes.xml"/>
        <additional-files value="single_intersection_tls.add.xml"/>
    </input>

    <output>
        <tripinfo-output value="single_intersection_tls.trips.xml"/>
    </output>

    <time>
        <begin value="0"/>
        <end value="50"/>
        <step-length value="1.0"/>
    </time>

    <traci_server>
        <remote-port value="47833"/>
    </traci_server>

</configuration>
-->

<tripinfos xmlns:xsi="http://www.w3.org/2001/XMLSchema-instance" xsi:noNamespaceSchemaLocation="http://sumo.dlr.de/xsd/tripinfo_file.xsd">
    <tripinfo id="13" depart="13.00" departLane="A1A0_0" departPos="5.10" departSpeed="0.00" departDelay="0.00" arrival="26.00" arrivalLane="A1A0_0" arrivalPos="139.60" arrivalSpeed="14.30" duration="13.00" routeLength="134.50" waitingTime="0.00" waitingCount="0" stopTime="0.00" timeLoss="3.57" rerouteNo="0" devices="tripinfo_13" vType="DEFAULT_VEHTYPE" speedFactor="1.12" vaporized=""/>
    <tripinfo id="11" depart="11.00" departLane="B0B1_0" departPos="5.10" departSpeed="0.00" departDelay="0.00" arrival="51.00" arrivalLane="A1A2_0" arrivalPos="139.60" arrivalSpeed="13.76" duration="40.00" routeLength="428.92" waitingTime="0.00" waitingCount="0" stopTime="0.00" timeLoss="7.35" rerouteNo="0" devices="tripinfo_11" vType="DEFAULT_VEHTYPE" speedFactor="1.03" vaporized=""/>
    <tripinfo id="2" depart="2.00" departLane="C0B0_0" departPos="5.10" departSpeed="0.00" departDelay="0.00" arrival="56.00" arrivalLane="B2C2_0" arrivalPos="139.60" arrivalSpeed="7.46" duration="54.00" routeLength="588.09" waitingTime="0.00" waitingCount="0" stopTime="0.00" timeLoss="10.69" rerouteNo="0" devices="tripinfo_2" vType="DEFAULT_VEHTYPE" speedFactor="1.01" vaporized=""/>
    <tripinfo id="1" depart="1.00" departLane="A2B2_0" departPos="5.10" departSpeed="0.00" departDelay="0.00" arrival="68.00" arrivalLane="A2A1_0" arrivalPos="139.60" arrivalSpeed="5.47" duration="67.00" routeLength="420.95" waitingTime="19.00" waitingCount="1" stopTime="0.00" timeLoss="33.65" rerouteNo="0" devices="tripinfo_1" vType="DEFAULT_VEHTYPE" speedFactor="0.94" vaporized=""/>
    <tripinfo id="19" depart="19.00" departLane="C1C0_0" departPos="5.10" departSpeed="0.00" departDelay="0.00" arrival="69.00" arrivalLane="B1C1_0" arrivalPos="135.60" arrivalSpeed="15.56" duration="50.00" routeLength="581.44" waitingTime="0.00" waitingCount="0" stopTime="0.00" timeLoss="11.60" rerouteNo="0" devices="tripinfo_19" vType="DEFAULT_VEHTYPE" speedFactor="1.16" vaporized=""/>
    <tripinfo id="44" depart="44.00" departLane="A1A0_0" departPos="5.10" departSpeed="0.00" departDelay="0.00" arrival="71.00" arrivalLane="A0B0_0" arrivalPos="139.60" arrivalSpeed="13.28" duration="27.00" routeLength="276.68" waitingTime="0.00" waitingCount="0" stopTime="0.00" timeLoss="7.71" rerouteNo="0" devices="tripinfo_44" vType="DEFAULT_VEHTYPE" speedFactor="1.04" vaporized=""/>
    <tripinfo id="4" depart="4.00" departLane="B1A1_0" departPos="5.10" departSpeed="0.00" departDelay="0.00" arrival="73.00" arrivalLane="A0A1_0" arrivalPos="139.60" arrivalSpeed="14.31" duration="69.00" routeLength="712.92" waitingTime="0.00" waitingCount="0" stopTime="0.00" timeLoss="16.60" rerouteNo="0" devices="tripinfo_4" vType="DEFAULT_VEHTYPE" speedFactor="1.03" vaporized=""/>
    <tripinfo id="47" depart="47.00" departLane="A0B0_0" departPos="5.10" departSpeed="0.00" departDelay="0.00" arrival="74.00" arrivalLane="B0C0_0" arrivalPos="139.60" arrivalSpeed="12.31" duration="27.00" routeLength="288.50" waitingTime="0.00" waitingCount="0" stopTime="0.00" timeLoss="3.73" rerouteNo="0" devices="tripinfo_47" vType="DEFAULT_VEHTYPE" speedFactor="0.90" vaporized=""/>
    <tripinfo id="14" depart="14.00" departLane="C1C0_0" departPos="5.10" departSpeed="0.00" departDelay="0.00" arrival="81.00" arrivalLane="B2A2_0" arrivalPos="139.60" arrivalSpeed="13.57" duration="67.00" routeLength="730.27" waitingTime="0.00" waitingCount="0" stopTime="0.00" timeLoss="11.06" rerouteNo="0" devices="tripinfo_14" vType="DEFAULT_VEHTYPE" speedFactor="0.99" vaporized=""/>
    <tripinfo id="16" depart="16.00" departLane="B1B2_0" departPos="5.10" departSpeed="0.00" departDelay="0.00" arrival="83.00" arrivalLane="C2C1_0" arrivalPos="139.60" arrivalSpeed="8.79" duration="67.00" routeLength="431.63" waitingTime="16.00" waitingCount="1" stopTime="0.00" timeLoss="29.76" rerouteNo="0" devices="tripinfo_16" vType="DEFAULT_VEHTYPE" speedFactor="0.88" vaporized=""/>
    <tripinfo id="25" depart="25.00" departLane="B0B1_0" departPos="5.10" departSpeed="0.00" departDelay="0.00" arrival="84.00" arrivalLane="A2A1_0" arrivalPos="139.60" arrivalSpeed="11.41" duration="59.00" routeLength="571.31" waitingTime="0.00" waitingCount="0" stopTime="0.00" timeLoss="9.79" rerouteNo="0" devices="tripinfo_25" vType="DEFAULT_VEHTYPE" speedFactor="0.87" vaporized=""/>
    <tripinfo id="31" depart="31.00" departLane="B1C1_0" departPos="5.10" departSpeed="0.00" departDelay="0.00" arrival="84.00" arrivalLane="B2C2_0" arrivalPos="139.60" arrivalSpeed="15.36" duration="53.00" routeLength="565.58" waitingTime="0.00" waitingCount="0" stopTime="0.00" timeLoss="15.75" rerouteNo="0" devices="tripinfo_31" vType="DEFAULT_VEHTYPE" speedFactor="1.15" vaporized=""/>
    <tripinfo id="3" depart="3.00" departLane="C1C2_0" departPos="5.10" departSpeed="0.00" departDelay="0.00" arrival="86.00" arrivalLane="A1A0_0" arrivalPos="139.60" arrivalSpeed="9.19" duration="83.00" routeLength="726.86" waitingTime="13.00" waitingCount="1" stopTime="0.00" timeLoss="34.08" rerouteNo="0" devices="tripinfo_3" vType="DEFAULT_VEHTYPE" speedFactor="1.08" vaporized=""/>
    <tripinfo id="22" depart="22.00" departLane="A0B0_0" departPos="5.10" departSpeed="0.00" departDelay="0.00" arrival="88.00" arrivalLane="A2A1_0" arrivalPos="139.60" arrivalSpeed="13.36" duration="66.00" routeLength="719.94" waitingTime="0.00" waitingCount="0" stopTime="0.00" timeLoss="11.40" rerouteNo="0" devices="tripinfo_22" vType="DEFAULT_VEHTYPE" speedFactor="0.97" vaporized=""/>
    <tripinfo id="34" depart="36.00" departLane="B0A0_0" departPos="5.10" departSpeed="0.00" departDelay="2.00" arrival="89.00" arrivalLane="A2B2_0" arrivalPos="139.60" arrivalSpeed="13.66" duration="53.00" routeLength="583.18" waitingTime="0.00" waitingCount="0" stopTime="0.00" timeLoss="8.61" rerouteNo="0" devices="tripinfo_34" vType="DEFAULT_VEHTYPE" speedFactor="0.99" vaporized=""/>
    <tripinfo id="32" depart="32.00" departLane="C1C0_0" departPos="5.10" departSpeed="0.00" departDelay="0.00" arrival="92.00" arrivalLane="C0C1_0" arrivalPos="139.60" arrivalSpeed="13.00" duration="60.00" routeLength="568.29" waitingTime="0.00" waitingCount="0" stopTime="0.00" timeLoss="16.66" rerouteNo="0" devices="tripinfo_32" vType="DEFAULT_VEHTYPE" speedFactor="1.01" vaporized=""/>
    <tripinfo id="21" depart="21.00" departLane="A2A1_0" departPos="5.10" departSpeed="0.00" departDelay="0.00" arrival="93.00" arrivalLane="A2B2_0" arrivalPos="139.60" arrivalSpeed="12.81" duration="72.00" routeLength="426.11" waitingTime="26.00" waitingCount="1" stopTime="0.00" timeLoss="39.59" rerouteNo="0" devices="tripinfo_21" vType="DEFAULT_VEHTYPE" speedFactor="1.01" vaporized=""/>
    <tripinfo id="39" depart="39.00" departLane="A2B2_0" departPos="5.10" departSpeed="0.00" departDelay="0.00" arrival="101.00" arrivalLane="A2A1_0" arrivalPos="139.60" arrivalSpeed="12.03" duration="62.00" routeLength="420.95" waitingTime="15.00" waitingCount="1" stopTime="0.00" timeLoss="26.33" rerouteNo="0" devices="tripinfo_39" vType="DEFAULT_VEHTYPE" speedFactor="0.90" vaporized=""/>
    <tripinfo id="49" depart="57.00" departLane="C2C1_0" departPos="5.10" departSpeed="0.00" departDelay="8.00" arrival="105.00" arrivalLane="C1C0_0" arrivalPos="139.60" arrivalSpeed="10.68" duration="48.00" routeLength="288.50" waitingTime="11.00" waitingCount="1" stopTime="0.00" timeLoss="23.40" rerouteNo="0" devices="tripinfo_49" vType="DEFAULT_VEHTYPE" speedFactor="0.85" vaporized=""/>
    <tripinfo id="26" depart="26.00" departLane="A2B2_0" departPos="5.10" departSpeed="0.00" departDelay="0.00" arrival="117.00" arrivalLane="C2B2_0" arrivalPos="139.60" arrivalSpeed="12.65" duration="91.00" routeLength="722.29" waitingTime="13.00" waitingCount="1" stopTime="0.00" timeLoss="32.64" rerouteNo="0" devices="tripinfo_26" vType="DEFAULT_VEHTYPE" speedFactor="0.92" vaporized=""/>
    <tripinfo id="17" depart="17.00" departLane="B0C0_0" departPos="5.10" departSpeed="0.00" departDelay="0.00" arrival="118.00" arrivalLane="B1C1_0" arrivalPos="135.60" arrivalSpeed="12.70" duration="101.00" routeLength="561.58" waitingTime="33.00" waitingCount="1" stopTime="0.00" timeLoss="55.72" rerouteNo="0" devices="tripinfo_17" vType="DEFAULT_VEHTYPE" speedFactor="0.94" vaporized=""/>
    <tripinfo id="10" depart="12.00" departLane="C1B1_0" departPos="5.10" departSpeed="0.00" departDelay="2.00" arrival="119.00" arrivalLane="B2C2_0" arrivalPos="139.60" arrivalSpeed="14.86" duration="107.00" routeLength="434.09" waitingTime="62.00" waitingCount="1" stopTime="0.00" timeLoss="77.03" rerouteNo="0" devices="tripinfo_10" vType="DEFAULT_VEHTYPE" speedFactor="1.09" vaporized=""/>
    <tripinfo id="46" depart="49.00" departLane="C1B1_0" departPos="5.10" departSpeed="0.00" departDelay="3.00" arrival="119.00" arrivalLane="B1A1_0" arrivalPos="135.60" arrivalSpeed="12.73" duration="70.00" routeLength="280.50" waitingTime="32.00" waitingCount="1" stopTime="0.00" timeLoss="49.16" rerouteNo="0" devices="tripinfo_46" vType="DEFAULT_VEHTYPE" speedFactor="1.00" vaporized=""/>
    <tripinfo id="33" depart="34.00" departLane="A2A1_0" departPos="5.10" departSpeed="0.00" departDelay="1.00" arrival="121.00" arrivalLane="A0A1_0" arrivalPos="139.60" arrivalSpeed="15.63" duration="87.00" routeLength="722.29" waitingTime="17.00" waitingCount="1" stopTime="0.00" timeLoss="40.01" rerouteNo="0" devices="tripinfo_33" vType="DEFAULT_VEHTYPE" speedFactor="1.17" vaporized=""/>
    <tripinfo id="42" depart="46.00" departLane="B0C0_0" departPos="5.10" departSpeed="0.00" departDelay="4.00" arrival="121.00" arrivalLane="A2A1_0" arrivalPos="139.60" arrivalSpeed="14.63" duration="75.00" routeLength="869.04" waitingTime="0.00" waitingCount="0" stopTime="0.00" timeLoss="17.08" rerouteNo="0" devices="tripinfo_42" vType="DEFAULT_VEHTYPE" speedFactor="1.09" vaporized=""/>
    <tripinfo id="43" depart="43.00" departLane="C2C1_0" departPos="5.10" departSpeed="0.00" departDelay="0.00" arrival="125.00" arrivalLane="B1B2_0" arrivalPos="135.60" arrivalSpeed="13.90" duration="82.00" routeLength="434.10" waitingTime="25.00" waitingCount="2" stopTime="0.00" timeLoss="49.87" rerouteNo="0" devices="tripinfo_43" vType="DEFAULT_VEHTYPE" speedFactor="1.04" vaporized=""/>
    <tripinfo id="18" depart="18.00" departLane="C1B1_0" departPos="5.10" departSpeed="0.00" departDelay="0.00" arrival="129.00" arrivalLane="B2A2_0" arrivalPos="139.60" arrivalSpeed="11.80" duration="111.00" routeLength="428.93" waitingTime="60.00" waitingCount="1" stopTime="0.00" timeLoss="76.47" rerouteNo="0" devices="tripinfo_18" vType="DEFAULT_VEHTYPE" speedFactor="0.94" vaporized=""/>
    <tripinfo id="48" depart="50.00" departLane="C2C1_0" departPos="5.10" departSpeed="0.00" departDelay="2.00" arrival="130.00" arrivalLane="B1B2_0" arrivalPos="135.60" arrivalSpeed="11.41" duration="80.00" routeLength="434.10" waitingTime="18.00" waitingCount="2" stopTime="0.00" timeLoss="42.23" rerouteNo="0" devices="tripinfo_48" vType="DEFAULT_VEHTYPE" speedFactor="0.88" vaporized=""/>
    <tripinfo id="9" depart="9.00" departLane="C1B1_0" departPos="5.10" departSpeed="0.00" departDelay="0.00" arrival="136.00" arrivalLane="A0A1_0" arrivalPos="139.60" arrivalSpeed="11.58" duration="127.00" routeLength="576.26" waitingTime="64.00" waitingCount="1" stopTime="0.00" timeLoss="76.62" rerouteNo="0" devices="tripinfo_9" vType="DEFAULT_VEHTYPE" speedFactor="0.86" vaporized=""/>
    <tripinfo id="15" depart="15.00" departLane="C1B1_0" departPos="5.10" departSpeed="0.00" departDelay="0.00" arrival="141.00" arrivalLane="C0B0_0" arrivalPos="139.60" arrivalSpeed="12.03" duration="126.00" routeLength="571.90" waitingTime="60.00" waitingCount="1" stopTime="0.00" timeLoss="79.31" rerouteNo="0" devices="tripinfo_15" vType="DEFAULT_VEHTYPE" speedFactor="0.93" vaporized=""/>
    <tripinfo id="40" depart="40.00" departLane="B1C1_0" departPos="5.10" departSpeed="0.00" departDelay="0.00" arrival="148.00" arrivalLane="A2B2_0" arrivalPos="139.60" arrivalSpeed="13.71" duration="108.00" routeLength="721.90" waitingTime="27.00" waitingCount="1" stopTime="0.00" timeLoss="54.46" rerouteNo="0" devices="tripinfo_40" vType="DEFAULT_VEHTYPE" speedFactor="1.03" vaporized=""/>
    <tripinfo id="20" depart="20.00" departLane="B2C2_0" departPos="5.10" departSpeed="0.00" departDelay="0.00" arrival="151.00" arrivalLane="A0B0_0" arrivalPos="139.60" arrivalSpeed="13.58" duration="131.00" routeLength="872.45" waitingTime="35.00" waitingCount="2" stopTime="0.00" timeLoss="66.47" rerouteNo="0" devices="tripinfo_20" vType="DEFAULT_VEHTYPE" speedFactor="1.02" vaporized=""/>
    <tripinfo id="7" depart="7.00" departLane="B2B1_0" departPos="5.10" departSpeed="0.00" departDelay="0.00" arrival="198.00" arrivalLane="B1C1_0" arrivalPos="135.60" arrivalSpeed="11.69" duration="191.00" routeLength="275.13" waitingTime="158.00" waitingCount="1" stopTime="0.00" timeLoss="167.35" rerouteNo="0" devices="tripinfo_7" vType="DEFAULT_VEHTYPE" speedFactor="0.89" vaporized=""/>
    <tripinfo id="30" depart="30.00" departLane="C2C1_0" departPos="5.10" departSpeed="0.00" departDelay="0.00" arrival="203.00" arrivalLane="B2B1_0" arrivalPos="135.60" arrivalSpeed="11.37" duration="173.00" routeLength="565.58" waitingTime="109.00" waitingCount="2" stopTime="0.00" timeLoss="136.75" rerouteNo="0" devices="tripinfo_30" vType="DEFAULT_VEHTYPE" speedFactor="1.18" vaporized=""/>
    <tripinfo id="38" depart="39.00" departLane="C1C2_0" departPos="5.10" departSpeed="0.00" departDelay="1.00" arrival="213.00" arrivalLane="B1B0_0" arrivalPos="135.60" arrivalSpeed="8.30" duration="174.00" routeLength="571.31" waitingTime="108.00" waitingCount="1" stopTime="0.00" timeLoss="135.00" rerouteNo="0" devices="tripinfo_38" vType="DEFAULT_VEHTYPE" speedFactor="1.10" vaporized=""/>
    <tripinfo id="37" depart="37.00" departLane="B2B1_0" departPos="5.10" departSpeed="0.00" departDelay="0.00" arrival="219.00" arrivalLane="B0C0_0" arrivalPos="139.60" arrivalSpeed="15.65" duration="182.00" routeLength="429.13" waitingTime="133.00" waitingCount="1" stopTime="0.00" timeLoss="154.99" rerouteNo="0" devices="tripinfo_37" vType="DEFAULT_VEHTYPE" speedFactor="1.18" vaporized=""/>
    <tripinfo id="0" depart="0.00" departLane="B2B1_0" departPos="5.10" departSpeed="0.00" departDelay="0.00" arrival="220.00" arrivalLane="A0A1_0" arrivalPos="139.60" arrivalSpeed="14.38" duration="220.00" routeLength="581.63" waitingTime="164.00" waitingCount="1" stopTime="0.00" timeLoss="179.08" rerouteNo="0" devices="tripinfo_0" vType="DEFAULT_VEHTYPE" speedFactor="1.06" vaporized=""/>
    <tripinfo id="27" depart="34.00" departLane="B2B1_0" departPos="5.10" departSpeed="0.00" departDelay="7.00" arrival="220.00" arrivalLane="B2A2_0" arrivalPos="139.60" arrivalSpeed="12.56" duration="186.00" routeLength="419.40" waitingTime="135.00" waitingCount="1" stopTime="0.00" timeLoss="152.18" rerouteNo="0" devices="tripinfo_27" vType="DEFAULT_VEHTYPE" speedFactor="0.95" vaporized=""/>
    <tripinfo id="36" depart="36.00" departLane="C1C2_0" departPos="5.10" departSpeed="0.00" departDelay="0.00" arrival="225.00" arrivalLane="B0A0_0" arrivalPos="139.60" arrivalSpeed="13.49" duration="189.00" routeLength="725.10" waitingTime="110.00" waitingCount="1" stopTime="0.00" timeLoss="133.26" rerouteNo="0" devices="tripinfo_36" vType="DEFAULT_VEHTYPE" speedFactor="0.97" vaporized=""/>
    <tripinfo id="29" depart="29.00" departLane="A1A2_0" departPos="5.10" departSpeed="0.00" departDelay="0.00" arrival="229.00" arrivalLane="B0C0_0" arrivalPos="139.60" arrivalSpeed="12.53" duration="200.00" routeLength="730.27" waitingTime="114.00" waitingCount="2" stopTime="0.00" timeLoss="141.78" rerouteNo="0" devices="tripinfo_29" vType="DEFAULT_VEHTYPE" speedFactor="0.93" vaporized=""/>
    <tripinfo id="6" depart="6.00" departLane="A0A1_0" departPos="5.10" departSpeed="0.00" departDelay="0.00" arrival="276.00" arrivalLane="A1B1_0" arrivalPos="135.60" arrivalSpeed="8.58" duration="270.00" routeLength="284.30" waitingTime="233.00" waitingCount="2" stopTime="0.00" timeLoss="249.40" rerouteNo="0" devices="tripinfo_6" vType="DEFAULT_VEHTYPE" speedFactor="1.05" vaporized=""/>
    <tripinfo id="5" depart="5.00" departLane="A2A1_0" departPos="5.10" departSpeed="0.00" departDelay="0.00" arrival="285.00" arrivalLane="B1B2_0" arrivalPos="135.60" arrivalSpeed="10.69" duration="280.00" routeLength="423.76" waitingTime="231.00" waitingCount="1" stopTime="0.00" timeLoss="241.64" rerouteNo="0" devices="tripinfo_5" vType="DEFAULT_VEHTYPE" speedFactor="0.83" vaporized=""/>
    <tripinfo id="8" depart="8.00" departLane="A2A1_0" departPos="5.10" departSpeed="0.00" departDelay="0.00" arrival="303.00" arrivalLane="B2A2_0" arrivalPos="139.60" arrivalSpeed="12.29" duration="295.00" routeLength="572.39" waitingTime="230.00" waitingCount="1" stopTime="0.00" timeLoss="247.91" rerouteNo="0" devices="tripinfo_8" vType="DEFAULT_VEHTYPE" speedFactor="0.94" vaporized=""/>
    <tripinfo id="41" depart="41.00" departLane="B2A2_0" departPos="5.10" departSpeed="0.00" departDelay="0.00" arrival="310.00" arrivalLane="C1C2_0" arrivalPos="139.60" arrivalSpeed="12.22" duration="269.00" routeLength="719.94" waitingTime="185.00" waitingCount="2" stopTime="0.00" timeLoss="211.94" rerouteNo="0" devices="tripinfo_41" vType="DEFAULT_VEHTYPE" speedFactor="0.96" vaporized=""/>
    <tripinfo id="28" depart="30.00" departLane="A1B1_0" departPos="5.10" departSpeed="0.00" departDelay="2.00" arrival="315.00" arrivalLane="C0B0_0" arrivalPos="139.60" arrivalSpeed="15.15" duration="285.00" routeLength="581.63" waitingTime="229.00" waitingCount="1" stopTime="0.00" timeLoss="245.28" rerouteNo="0" devices="tripinfo_28" vType="DEFAULT_VEHTYPE" speedFactor="1.13" vaporized=""/>
    <tripinfo id="35" depart="43.00" departLane="A2A1_0" departPos="5.10" departSpeed="0.00" departDelay="8.00" arrival="319.00" arrivalLane="C2B2_0" arrivalPos="139.60" arrivalSpeed="13.03" duration="276.00" routeLength="719.94" waitingTime="197.00" waitingCount="2" stopTime="0.00" timeLoss="224.08" rerouteNo="0" devices="tripinfo_35" vType="DEFAULT_VEHTYPE" speedFactor="1.02" vaporized=""/>
    <tripinfo id="12" depart="12.00" departLane="C2B2_0" departPos="5.10" departSpeed="0.00" departDelay="0.00" arrival="366.00" arrivalLane="B0B1_0" arrivalPos="135.60" arrivalSpeed="6.72" duration="354.00" routeLength="569.40" waitingTime="287.00" waitingCount="2" stopTime="0.00" timeLoss="313.44" rerouteNo="0" devices="tripinfo_12" vType="DEFAULT_VEHTYPE" speedFactor="1.05" vaporized=""/>
    <tripinfo id="24" depart="31.00" departLane="B2B1_0" departPos="5.10" departSpeed="0.00" departDelay="7.00" arrival="368.00" arrivalLane="B0B1_0" arrivalPos="135.60" arrivalSpeed="9.04" duration="337.00" routeLength="420.77" waitingTime="277.00" waitingCount="2" stopTime="0.00" timeLoss="298.82" rerouteNo="0" devices="tripinfo_24" vType="DEFAULT_VEHTYPE" speedFactor="0.83" vaporized=""/>
    <tripinfo id="45" depart="47.00" departLane="A1A0_0" departPos="5.10" departSpeed="0.00" departDelay="2.00" arrival="390.00" arrivalLane="B2B1_0" arrivalPos="135.60" arrivalSpeed="14.27" duration="343.00" routeLength="711.58" waitingTime="272.00" waitingCount="1" stopTime="0.00" timeLoss="293.95" rerouteNo="0" devices="tripinfo_45" vType="DEFAULT_VEHTYPE" speedFactor="1.09" vaporized=""/>
    <tripinfo id="23" depart="23.00" departLane="A1A0_0" departPos="5.10" departSpeed="0.00" departDelay="0.00" arrival="405.00" arrivalLane="A2B2_0" arrivalPos="139.60" arrivalSpeed="12.00" duration="382.00" routeLength="867.07" waitingTime="291.00" waitingCount="1" stopTime="0.00" timeLoss="308.36" rerouteNo="0" devices="tripinfo_23" vType="DEFAULT_VEHTYPE" speedFactor="0.89" vaporized=""/>
</tripinfos>
