<?xml version="1.0" encoding="UTF-8"?>

<!-- generated on 2022-12-19 15:59:50 by Eclipse SUMO GUI Version 1.14.1
<configuration xmlns:xsi="http://www.w3.org/2001/XMLSchema-instance" xsi:noNamespaceSchemaLocation="http://sumo.dlr.de/xsd/sumoConfiguration.xsd">

    <input>
        <net-file value="single_intersection_tls.net.xml"/>
        <route-files value="single_intersection_tls.routes.xml"/>
        <additional-files value="single_intersection_tls.add.xml"/>
    </input>

    <output>
        <tripinfo-output value="single_intersection_tls.trips.xml"/>
    </output>

    <time>
        <begin value="0"/>
        <end value="50"/>
        <step-length value="0.5"/>
    </time>

    <traci_server>
        <remote-port value="50195"/>
    </traci_server>

</configuration>
-->

<tripinfos xmlns:xsi="http://www.w3.org/2001/XMLSchema-instance" xsi:noNamespaceSchemaLocation="http://sumo.dlr.de/xsd/tripinfo_file.xsd">
    <tripinfo id="13" depart="13.00" departLane="A1A0_0" departPos="5.10" departSpeed="0.00" departDelay="0.00" arrival="25.50" arrivalLane="A1A0_0" arrivalPos="139.60" arrivalSpeed="15.27" duration="12.50" routeLength="134.50" waitingTime="0.00" waitingCount="0" stopTime="0.00" timeLoss="3.74" rerouteNo="0" devices="tripinfo_13" vType="DEFAULT_VEHTYPE" speedFactor="1.12" vaporized=""/>
    <tripinfo id="7" depart="7.00" departLane="B2B1_0" departPos="5.10" departSpeed="0.00" departDelay="0.00" arrival="35.50" arrivalLane="B1C1_0" arrivalPos="135.60" arrivalSpeed="11.89" duration="28.50" routeLength="275.13" waitingTime="0.00" waitingCount="0" stopTime="0.00" timeLoss="4.95" rerouteNo="0" devices="tripinfo_7" vType="DEFAULT_VEHTYPE" speedFactor="0.89" vaporized=""/>
    <tripinfo id="0" depart="0.00" departLane="B2B1_0" departPos="5.10" departSpeed="0.00" departDelay="0.00" arrival="49.00" arrivalLane="A0A1_0" arrivalPos="139.60" arrivalSpeed="14.40" duration="49.00" routeLength="581.63" waitingTime="0.00" waitingCount="0" stopTime="0.00" timeLoss="7.83" rerouteNo="0" devices="tripinfo_0" vType="DEFAULT_VEHTYPE" speedFactor="1.06" vaporized=""/>
    <tripinfo id="11" depart="11.00" departLane="B0B1_0" departPos="5.10" departSpeed="0.00" departDelay="0.00" arrival="49.50" arrivalLane="A1A2_0" arrivalPos="139.60" arrivalSpeed="13.88" duration="38.50" routeLength="428.92" waitingTime="0.00" waitingCount="0" stopTime="0.00" timeLoss="6.79" rerouteNo="0" devices="tripinfo_11" vType="DEFAULT_VEHTYPE" speedFactor="1.03" vaporized=""/>
    <tripinfo id="2" depart="2.00" departLane="C0B0_0" departPos="5.10" departSpeed="0.00" departDelay="0.00" arrival="55.50" arrivalLane="B2C2_0" arrivalPos="139.60" arrivalSpeed="11.72" duration="53.50" routeLength="588.09" waitingTime="0.00" waitingCount="0" stopTime="0.00" timeLoss="10.05" rerouteNo="0" devices="tripinfo_2" vType="DEFAULT_VEHTYPE" speedFactor="1.01" vaporized=""/>
    <tripinfo id="1" depart="1.00" departLane="A2B2_0" departPos="5.10" departSpeed="0.00" departDelay="0.00" arrival="67.50" arrivalLane="A2A1_0" arrivalPos="139.60" arrivalSpeed="4.98" duration="66.50" routeLength="420.95" waitingTime="17.50" waitingCount="1" stopTime="0.00" timeLoss="33.04" rerouteNo="0" devices="tripinfo_1" vType="DEFAULT_VEHTYPE" speedFactor="0.94" vaporized=""/>
    <tripinfo id="4" depart="4.00" departLane="B1A1_0" departPos="5.10" departSpeed="0.00" departDelay="0.00" arrival="70.00" arrivalLane="A0A1_0" arrivalPos="139.60" arrivalSpeed="13.80" duration="66.00" routeLength="712.92" waitingTime="0.00" waitingCount="0" stopTime="0.00" timeLoss="13.91" rerouteNo="0" devices="tripinfo_4" vType="DEFAULT_VEHTYPE" speedFactor="1.03" vaporized=""/>
    <tripinfo id="44" depart="44.00" departLane="A1A0_0" departPos="5.10" departSpeed="0.00" departDelay="0.00" arrival="70.50" arrivalLane="A0B0_0" arrivalPos="139.60" arrivalSpeed="14.17" duration="26.50" routeLength="276.68" waitingTime="0.00" waitingCount="0" stopTime="0.00" timeLoss="6.81" rerouteNo="0" devices="tripinfo_44" vType="DEFAULT_VEHTYPE" speedFactor="1.04" vaporized=""/>
    <tripinfo id="47" depart="47.00" departLane="A0B0_0" departPos="5.10" departSpeed="0.00" departDelay="0.00" arrival="74.00" arrivalLane="B0C0_0" arrivalPos="139.60" arrivalSpeed="11.87" duration="27.00" routeLength="288.50" waitingTime="0.00" waitingCount="0" stopTime="0.00" timeLoss="3.61" rerouteNo="0" devices="tripinfo_47" vType="DEFAULT_VEHTYPE" speedFactor="0.90" vaporized=""/>
    <tripinfo id="16" depart="16.00" departLane="B1B2_0" departPos="5.10" departSpeed="0.00" departDelay="0.00" arrival="80.00" arrivalLane="C2C1_0" arrivalPos="139.60" arrivalSpeed="9.02" duration="64.00" routeLength="431.63" waitingTime="12.00" waitingCount="1" stopTime="0.00" timeLoss="26.49" rerouteNo="0" devices="tripinfo_16" vType="DEFAULT_VEHTYPE" speedFactor="0.88" vaporized=""/>
    <tripinfo id="25" depart="25.00" departLane="B0B1_0" departPos="5.10" departSpeed="0.00" departDelay="0.00" arrival="81.50" arrivalLane="A2A1_0" arrivalPos="139.60" arrivalSpeed="11.70" duration="56.50" routeLength="571.31" waitingTime="0.00" waitingCount="0" stopTime="0.00" timeLoss="7.79" rerouteNo="0" devices="tripinfo_25" vType="DEFAULT_VEHTYPE" speedFactor="0.87" vaporized=""/>
    <tripinfo id="31" depart="31.00" departLane="B1C1_0" departPos="5.10" departSpeed="0.00" departDelay="0.00" arrival="82.50" arrivalLane="B2C2_0" arrivalPos="139.60" arrivalSpeed="15.76" duration="51.50" routeLength="565.58" waitingTime="0.00" waitingCount="0" stopTime="0.00" timeLoss="14.04" rerouteNo="0" devices="tripinfo_31" vType="DEFAULT_VEHTYPE" speedFactor="1.15" vaporized=""/>
    <tripinfo id="3" depart="3.00" departLane="C1C2_0" departPos="5.10" departSpeed="0.00" departDelay="0.00" arrival="84.00" arrivalLane="A1A0_0" arrivalPos="139.60" arrivalSpeed="9.46" duration="81.00" routeLength="726.86" waitingTime="11.00" waitingCount="1" stopTime="0.00" timeLoss="31.77" rerouteNo="0" devices="tripinfo_3" vType="DEFAULT_VEHTYPE" speedFactor="1.08" vaporized=""/>
    <tripinfo id="39" depart="39.00" departLane="A2B2_0" departPos="5.10" departSpeed="0.00" departDelay="0.00" arrival="85.00" arrivalLane="A2A1_0" arrivalPos="139.60" arrivalSpeed="12.13" duration="46.00" routeLength="420.95" waitingTime="0.00" waitingCount="0" stopTime="0.00" timeLoss="10.17" rerouteNo="0" devices="tripinfo_39" vType="DEFAULT_VEHTYPE" speedFactor="0.90" vaporized=""/>
    <tripinfo id="34" depart="36.00" departLane="B0A0_0" departPos="5.10" departSpeed="0.00" departDelay="2.00" arrival="87.00" arrivalLane="A2B2_0" arrivalPos="139.60" arrivalSpeed="13.22" duration="51.00" routeLength="583.18" waitingTime="0.00" waitingCount="0" stopTime="0.00" timeLoss="7.44" rerouteNo="0" devices="tripinfo_34" vType="DEFAULT_VEHTYPE" speedFactor="0.99" vaporized=""/>
    <tripinfo id="32" depart="32.00" departLane="C1C0_0" departPos="5.10" departSpeed="0.00" departDelay="0.00" arrival="90.00" arrivalLane="C0C1_0" arrivalPos="139.60" arrivalSpeed="13.88" duration="58.00" routeLength="568.29" waitingTime="2.50" waitingCount="1" stopTime="0.00" timeLoss="15.39" rerouteNo="0" devices="tripinfo_32" vType="DEFAULT_VEHTYPE" speedFactor="1.01" vaporized=""/>
    <tripinfo id="21" depart="21.00" departLane="A2A1_0" departPos="5.10" departSpeed="0.00" departDelay="0.00" arrival="91.00" arrivalLane="A2B2_0" arrivalPos="139.60" arrivalSpeed="13.95" duration="70.00" routeLength="426.11" waitingTime="28.50" waitingCount="1" stopTime="0.00" timeLoss="37.68" rerouteNo="0" devices="tripinfo_21" vType="DEFAULT_VEHTYPE" speedFactor="1.01" vaporized=""/>
    <tripinfo id="17" depart="17.00" departLane="B0C0_0" departPos="5.10" departSpeed="0.00" departDelay="0.00" arrival="97.00" arrivalLane="B1C1_0" arrivalPos="135.60" arrivalSpeed="12.66" duration="80.00" routeLength="561.58" waitingTime="14.00" waitingCount="1" stopTime="0.00" timeLoss="34.62" rerouteNo="0" devices="tripinfo_17" vType="DEFAULT_VEHTYPE" speedFactor="0.94" vaporized=""/>
    <tripinfo id="46" depart="48.50" departLane="C1B1_0" departPos="5.10" departSpeed="0.00" departDelay="2.50" arrival="98.00" arrivalLane="B1A1_0" arrivalPos="135.60" arrivalSpeed="13.60" duration="49.50" routeLength="280.50" waitingTime="12.00" waitingCount="1" stopTime="0.00" timeLoss="29.16" rerouteNo="0" devices="tripinfo_46" vType="DEFAULT_VEHTYPE" speedFactor="1.00" vaporized=""/>
    <tripinfo id="10" depart="11.50" departLane="C1B1_0" departPos="5.10" departSpeed="0.00" departDelay="1.50" arrival="99.50" arrivalLane="B2C2_0" arrivalPos="139.60" arrivalSpeed="14.87" duration="88.00" routeLength="434.09" waitingTime="44.00" waitingCount="1" stopTime="0.00" timeLoss="57.98" rerouteNo="0" devices="tripinfo_10" vType="DEFAULT_VEHTYPE" speedFactor="1.09" vaporized=""/>
    <tripinfo id="49" depart="56.50" departLane="C2C1_0" departPos="5.10" departSpeed="0.00" departDelay="7.50" arrival="102.00" arrivalLane="C1C0_0" arrivalPos="139.60" arrivalSpeed="11.66" duration="45.50" routeLength="288.50" waitingTime="5.50" waitingCount="1" stopTime="0.00" timeLoss="20.70" rerouteNo="0" devices="tripinfo_49" vType="DEFAULT_VEHTYPE" speedFactor="0.85" vaporized=""/>
    <tripinfo id="43" depart="43.00" departLane="C2C1_0" departPos="5.10" departSpeed="0.00" departDelay="0.00" arrival="104.00" arrivalLane="B1B2_0" arrivalPos="135.60" arrivalSpeed="13.99" duration="61.00" routeLength="434.10" waitingTime="14.50" waitingCount="1" stopTime="0.00" timeLoss="29.08" rerouteNo="0" devices="tripinfo_43" vType="DEFAULT_VEHTYPE" speedFactor="1.04" vaporized=""/>
    <tripinfo id="48" depart="49.00" departLane="C2C1_0" departPos="5.10" departSpeed="0.00" departDelay="1.00" arrival="110.50" arrivalLane="B1B2_0" arrivalPos="135.60" arrivalSpeed="12.10" duration="61.50" routeLength="434.10" waitingTime="10.00" waitingCount="1" stopTime="0.00" timeLoss="24.07" rerouteNo="0" devices="tripinfo_48" vType="DEFAULT_VEHTYPE" speedFactor="0.88" vaporized=""/>
    <tripinfo id="18" depart="18.00" departLane="C1B1_0" departPos="5.10" departSpeed="0.00" departDelay="0.00" arrival="111.00" arrivalLane="B2A2_0" arrivalPos="139.60" arrivalSpeed="12.47" duration="93.00" routeLength="428.93" waitingTime="40.00" waitingCount="2" stopTime="0.00" timeLoss="58.14" rerouteNo="0" devices="tripinfo_18" vType="DEFAULT_VEHTYPE" speedFactor="0.94" vaporized=""/>
    <tripinfo id="26" depart="26.00" departLane="A2B2_0" departPos="5.10" departSpeed="0.00" departDelay="0.00" arrival="113.50" arrivalLane="C2B2_0" arrivalPos="139.60" arrivalSpeed="12.60" duration="87.50" routeLength="722.29" waitingTime="8.00" waitingCount="1" stopTime="0.00" timeLoss="28.30" rerouteNo="0" devices="tripinfo_26" vType="DEFAULT_VEHTYPE" speedFactor="0.92" vaporized=""/>
    <tripinfo id="9" depart="9.00" departLane="C1B1_0" departPos="5.10" departSpeed="0.00" departDelay="0.00" arrival="118.00" arrivalLane="A0A1_0" arrivalPos="139.60" arrivalSpeed="11.31" duration="109.00" routeLength="576.26" waitingTime="47.00" waitingCount="1" stopTime="0.00" timeLoss="57.96" rerouteNo="0" devices="tripinfo_9" vType="DEFAULT_VEHTYPE" speedFactor="0.86" vaporized=""/>
    <tripinfo id="42" depart="45.00" departLane="B0C0_0" departPos="5.10" departSpeed="0.00" departDelay="3.00" arrival="118.00" arrivalLane="A2A1_0" arrivalPos="139.60" arrivalSpeed="14.55" duration="73.00" routeLength="869.04" waitingTime="0.00" waitingCount="0" stopTime="0.00" timeLoss="14.55" rerouteNo="0" devices="tripinfo_42" vType="DEFAULT_VEHTYPE" speedFactor="1.09" vaporized=""/>
    <tripinfo id="33" depart="33.50" departLane="A2A1_0" departPos="5.10" departSpeed="0.00" departDelay="0.50" arrival="119.50" arrivalLane="A0A1_0" arrivalPos="139.60" arrivalSpeed="15.23" duration="86.00" routeLength="722.29" waitingTime="15.00" waitingCount="1" stopTime="0.00" timeLoss="39.69" rerouteNo="0" devices="tripinfo_33" vType="DEFAULT_VEHTYPE" speedFactor="1.17" vaporized=""/>
    <tripinfo id="15" depart="15.00" departLane="C1B1_0" departPos="5.10" departSpeed="0.00" departDelay="0.00" arrival="120.00" arrivalLane="C0B0_0" arrivalPos="139.60" arrivalSpeed="12.84" duration="105.00" routeLength="571.90" waitingTime="41.50" waitingCount="1" stopTime="0.00" timeLoss="58.05" rerouteNo="0" devices="tripinfo_15" vType="DEFAULT_VEHTYPE" speedFactor="0.93" vaporized=""/>
    <tripinfo id="40" depart="40.00" departLane="B1C1_0" departPos="5.10" departSpeed="0.00" departDelay="0.00" arrival="126.00" arrivalLane="A2B2_0" arrivalPos="139.60" arrivalSpeed="14.29" duration="86.00" routeLength="721.90" waitingTime="7.50" waitingCount="1" stopTime="0.00" timeLoss="32.87" rerouteNo="0" devices="tripinfo_40" vType="DEFAULT_VEHTYPE" speedFactor="1.03" vaporized=""/>
    <tripinfo id="20" depart="20.00" departLane="B2C2_0" departPos="5.10" departSpeed="0.00" departDelay="0.00" arrival="129.50" arrivalLane="A0B0_0" arrivalPos="139.60" arrivalSpeed="13.82" duration="109.50" routeLength="872.45" waitingTime="23.00" waitingCount="1" stopTime="0.00" timeLoss="45.51" rerouteNo="0" devices="tripinfo_20" vType="DEFAULT_VEHTYPE" speedFactor="1.02" vaporized=""/>
    <tripinfo id="30" depart="30.00" departLane="C2C1_0" departPos="5.10" departSpeed="0.00" departDelay="0.00" arrival="145.50" arrivalLane="B2B1_0" arrivalPos="135.60" arrivalSpeed="12.07" duration="115.50" routeLength="565.58" waitingTime="53.00" waitingCount="2" stopTime="0.00" timeLoss="78.96" rerouteNo="0" devices="tripinfo_30" vType="DEFAULT_VEHTYPE" speedFactor="1.18" vaporized=""/>
    <tripinfo id="38" depart="38.50" departLane="C1C2_0" departPos="5.10" departSpeed="0.00" departDelay="0.50" arrival="159.00" arrivalLane="B1B0_0" arrivalPos="135.60" arrivalSpeed="9.16" duration="120.50" routeLength="571.31" waitingTime="54.50" waitingCount="1" stopTime="0.00" timeLoss="81.95" rerouteNo="0" devices="tripinfo_38" vType="DEFAULT_VEHTYPE" speedFactor="1.10" vaporized=""/>
    <tripinfo id="27" depart="33.50" departLane="B2B1_0" departPos="5.10" departSpeed="0.00" departDelay="6.50" arrival="163.50" arrivalLane="B2A2_0" arrivalPos="139.60" arrivalSpeed="13.01" duration="130.00" routeLength="419.40" waitingTime="82.00" waitingCount="1" stopTime="0.00" timeLoss="96.36" rerouteNo="0" devices="tripinfo_27" vType="DEFAULT_VEHTYPE" speedFactor="0.95" vaporized=""/>
    <tripinfo id="37" depart="40.50" departLane="B2B1_0" departPos="5.10" departSpeed="0.00" departDelay="3.50" arrival="163.50" arrivalLane="B0C0_0" arrivalPos="139.60" arrivalSpeed="15.96" duration="123.00" routeLength="429.13" waitingTime="77.00" waitingCount="1" stopTime="0.00" timeLoss="95.63" rerouteNo="0" devices="tripinfo_37" vType="DEFAULT_VEHTYPE" speedFactor="1.18" vaporized=""/>
    <tripinfo id="29" depart="29.00" departLane="A1A2_0" departPos="5.10" departSpeed="0.00" departDelay="0.00" arrival="168.50" arrivalLane="B0C0_0" arrivalPos="139.60" arrivalSpeed="12.66" duration="139.50" routeLength="730.27" waitingTime="60.00" waitingCount="1" stopTime="0.00" timeLoss="80.40" rerouteNo="0" devices="tripinfo_29" vType="DEFAULT_VEHTYPE" speedFactor="0.93" vaporized=""/>
    <tripinfo id="36" depart="36.00" departLane="C1C2_0" departPos="5.10" departSpeed="0.00" departDelay="0.00" arrival="170.00" arrivalLane="B0A0_0" arrivalPos="139.60" arrivalSpeed="12.98" duration="134.00" routeLength="725.10" waitingTime="55.50" waitingCount="1" stopTime="0.00" timeLoss="78.39" rerouteNo="0" devices="tripinfo_36" vType="DEFAULT_VEHTYPE" speedFactor="0.97" vaporized=""/>
    <tripinfo id="6" depart="6.00" departLane="A0A1_0" departPos="5.10" departSpeed="0.00" departDelay="0.00" arrival="197.50" arrivalLane="A1B1_0" arrivalPos="135.60" arrivalSpeed="6.60" duration="191.50" routeLength="284.30" waitingTime="154.00" waitingCount="2" stopTime="0.00" timeLoss="171.23" rerouteNo="0" devices="tripinfo_6" vType="DEFAULT_VEHTYPE" speedFactor="1.05" vaporized=""/>
    <tripinfo id="5" depart="5.00" departLane="A2A1_0" departPos="5.10" departSpeed="0.00" departDelay="0.00" arrival="207.50" arrivalLane="B1B2_0" arrivalPos="135.60" arrivalSpeed="11.47" duration="202.50" routeLength="423.76" waitingTime="155.00" waitingCount="1" stopTime="0.00" timeLoss="164.18" rerouteNo="0" devices="tripinfo_5" vType="DEFAULT_VEHTYPE" speedFactor="0.83" vaporized=""/>
    <tripinfo id="8" depart="8.00" departLane="A2A1_0" departPos="5.10" departSpeed="0.00" departDelay="0.00" arrival="224.00" arrivalLane="B2A2_0" arrivalPos="139.60" arrivalSpeed="12.54" duration="216.00" routeLength="572.39" waitingTime="152.50" waitingCount="1" stopTime="0.00" timeLoss="169.25" rerouteNo="0" devices="tripinfo_8" vType="DEFAULT_VEHTYPE" speedFactor="0.94" vaporized=""/>
    <tripinfo id="41" depart="41.00" departLane="B2A2_0" departPos="5.10" departSpeed="0.00" departDelay="0.00" arrival="229.50" arrivalLane="C1C2_0" arrivalPos="139.60" arrivalSpeed="12.72" duration="188.50" routeLength="719.94" waitingTime="105.00" waitingCount="1" stopTime="0.00" timeLoss="132.16" rerouteNo="0" devices="tripinfo_41" vType="DEFAULT_VEHTYPE" speedFactor="0.96" vaporized=""/>
    <tripinfo id="28" depart="29.00" departLane="A1B1_0" departPos="5.10" departSpeed="0.00" departDelay="1.00" arrival="234.50" arrivalLane="C0B0_0" arrivalPos="139.60" arrivalSpeed="15.68" duration="205.50" routeLength="581.63" waitingTime="149.00" waitingCount="1" stopTime="0.00" timeLoss="167.06" rerouteNo="0" devices="tripinfo_28" vType="DEFAULT_VEHTYPE" speedFactor="1.13" vaporized=""/>
    <tripinfo id="35" depart="42.50" departLane="A2A1_0" departPos="5.10" departSpeed="0.00" departDelay="7.50" arrival="239.00" arrivalLane="C2B2_0" arrivalPos="139.60" arrivalSpeed="13.64" duration="196.50" routeLength="719.94" waitingTime="115.00" waitingCount="2" stopTime="0.00" timeLoss="143.98" rerouteNo="0" devices="tripinfo_35" vType="DEFAULT_VEHTYPE" speedFactor="1.02" vaporized=""/>
    <tripinfo id="12" depart="12.00" departLane="C2B2_0" departPos="5.10" departSpeed="0.00" departDelay="0.00" arrival="259.50" arrivalLane="B0B1_0" arrivalPos="135.60" arrivalSpeed="9.12" duration="247.50" routeLength="569.40" waitingTime="189.50" waitingCount="1" stopTime="0.00" timeLoss="206.93" rerouteNo="0" devices="tripinfo_12" vType="DEFAULT_VEHTYPE" speedFactor="1.05" vaporized=""/>
    <tripinfo id="24" depart="30.50" departLane="B2B1_0" departPos="5.10" departSpeed="0.00" departDelay="6.50" arrival="266.00" arrivalLane="B0B1_0" arrivalPos="135.60" arrivalSpeed="9.28" duration="235.50" routeLength="420.77" waitingTime="176.50" waitingCount="2" stopTime="0.00" timeLoss="197.53" rerouteNo="0" devices="tripinfo_24" vType="DEFAULT_VEHTYPE" speedFactor="0.83" vaporized=""/>
    <tripinfo id="19" depart="19.00" departLane="C1C0_0" departPos="5.10" departSpeed="0.00" departDelay="0.00" arrival="269.00" arrivalLane="B1C1_0" arrivalPos="135.60" arrivalSpeed="15.94" duration="250.00" routeLength="581.44" waitingTime="192.00" waitingCount="1" stopTime="0.00" timeLoss="211.62" rerouteNo="0" devices="tripinfo_19" vType="DEFAULT_VEHTYPE" speedFactor="1.16" vaporized=""/>
    <tripinfo id="14" depart="14.00" departLane="C1C0_0" departPos="5.10" departSpeed="0.00" departDelay="0.00" arrival="283.50" arrivalLane="B2A2_0" arrivalPos="139.60" arrivalSpeed="9.40" duration="269.50" routeLength="730.27" waitingTime="194.50" waitingCount="1" stopTime="0.00" timeLoss="214.53" rerouteNo="0" devices="tripinfo_14" vType="DEFAULT_VEHTYPE" speedFactor="0.99" vaporized=""/>
    <tripinfo id="45" depart="49.00" departLane="A1A0_0" departPos="5.10" departSpeed="0.00" departDelay="4.00" arrival="289.00" arrivalLane="B2B1_0" arrivalPos="135.60" arrivalSpeed="14.97" duration="240.00" routeLength="711.58" waitingTime="166.00" waitingCount="1" stopTime="0.00" timeLoss="190.78" rerouteNo="0" devices="tripinfo_45" vType="DEFAULT_VEHTYPE" speedFactor="1.09" vaporized=""/>
    <tripinfo id="22" depart="22.00" departLane="A0B0_0" departPos="5.10" departSpeed="0.00" departDelay="0.00" arrival="294.00" arrivalLane="A2A1_0" arrivalPos="139.60" arrivalSpeed="13.30" duration="272.00" routeLength="719.94" waitingTime="201.50" waitingCount="1" stopTime="0.00" timeLoss="216.49" rerouteNo="0" devices="tripinfo_22" vType="DEFAULT_VEHTYPE" speedFactor="0.97" vaporized=""/>
    <tripinfo id="23" depart="23.00" departLane="A1A0_0" departPos="5.10" departSpeed="0.00" departDelay="0.00" arrival="305.00" arrivalLane="A2B2_0" arrivalPos="139.60" arrivalSpeed="12.03" duration="282.00" routeLength="867.07" waitingTime="186.50" waitingCount="1" stopTime="0.00" timeLoss="208.12" rerouteNo="0" devices="tripinfo_23" vType="DEFAULT_VEHTYPE" speedFactor="0.89" vaporized=""/>
</tripinfos>
